                         Program Version 4.1.0  - RELEASE  -
|  1> ! engrad  BLYP  def2-TZVP
|  2> %pal nprocs 1 end
|  3> *xyz -1 1
|  4> C   -0.806718 0.0475439 1.5251484
|  5> S   0.3116624 0.2691858 0.0786324
|  6> H   -0.2255019 -0.222059 2.4060774
|  7> H   -1.4979938 -0.7535269 1.2757967
|  8> H   -1.3445395 0.9720244 1.7264612
|  9> C   -2.12058 -0.473563 -2.16443
| 10> S   -0.909224 -1.55335 -1.31694
| 11> H   -2.87184 -0.0888163 -1.47067
| 12> H   -2.63462 -1.0432 -2.94303
| 13> H   -1.61839 0.375892 -2.6309
| 14> C   3.12293 1.42501 2.43838
| 15> S   1.87995 2.48535 1.61543
| 16> H   3.87616 2.05726 2.91514
| 17> H   2.67047 0.794064 3.20724
| 18> H   3.61916 0.779927 1.71184
| 19> *
| 20>
| 21>                          ****END OF INPUT****

CARTESIAN COORDINATES (ANGSTROEM)
---------------------------------
  C     -0.806718    0.047544    1.525148
  S      0.311662    0.269186    0.078632
  H     -0.225502   -0.222059    2.406077
  H     -1.497994   -0.753527    1.275797
  H     -1.344539    0.972024    1.726461
  C     -2.120580   -0.473563   -2.164430
  S     -0.909224   -1.553350   -1.316940
  H     -2.871840   -0.088816   -1.470670
  H     -2.634620   -1.043200   -2.943030
  H     -1.618390    0.375892   -2.630900
  C      3.122930    1.425010    2.438380
  S      1.879950    2.485350    1.615430
  H      3.876160    2.057260    2.915140
  H      2.670470    0.794064    3.207240
  H      3.619160    0.779927    1.711840

 Total Charge           Charge          ....   -1
 Multiplicity           Mult            ....    1
 Number of Electrons    NEL             ....   76
 Basis Dimension        Dim             ....  258

ORBITAL ENERGIES
----------------

  NO   OCC          E(Eh)            E(eV)
   0   2.0000     -87.952819     -2393.3179
   1   2.0000     -87.932108     -2392.7543
   2   2.0000     -87.889633     -2391.5985
   3   2.0000      -9.790176      -266.4042
   4   2.0000      -9.776862      -266.0419
   5   2.0000      -9.768028      -265.8016
   6   2.0000      -7.509563      -204.3456
   7   2.0000      -7.492103      -203.8705
   8   2.0000      -7.450068      -202.7267
   9   2.0000      -5.540854      -150.7743
  10   2.0000      -5.536704      -150.6614
  11   2.0000      -5.527600      -150.4136
  12   2.0000      -5.521208      -150.2397
  13   2.0000      -5.518814      -150.1746
  14   2.0000      -5.511755      -149.9825
  15   2.0000      -5.479355      -149.1008
  16   2.0000      -5.475816      -149.0045
  17   2.0000      -5.470404      -148.8573
  18   2.0000      -0.542551       -14.7636
  19   2.0000      -0.525334       -14.2951
  20   2.0000      -0.507478       -13.8092
  21   2.0000      -0.410762       -11.1774
  22   2.0000      -0.384377       -10.4594
  23   2.0000      -0.364543        -9.9197
  24   2.0000      -0.244168        -6.6441
  25   2.0000      -0.237167        -6.4536
  26   2.0000      -0.229393        -6.2421
  27   2.0000      -0.226345        -6.1592
  28   2.0000      -0.216911        -5.9024
  29   2.0000      -0.214038        -5.8243
  30   2.0000      -0.168296        -4.5796
  31   2.0000      -0.154154        -4.1947
  32   2.0000      -0.131564        -3.5800
  33   2.0000      -0.092138        -2.5072
  34   2.0000      -0.036102        -0.9824
  35   2.0000      -0.033795        -0.9196
  36   2.0000      -0.012071        -0.3285
  37   2.0000      -0.000584        -0.0159
  38   0.0000       0.049314         1.3419
  39   0.0000       0.136785         3.7221
  40   0.0000       0.147905         4.0247
  41   0.0000       0.154285         4.1983
  42   0.0000       0.173107         4.7105

MULLIKEN ATOMIC CHARGES
-----------------------
   0 C :   -0.231604
   1 S :   -0.126340
   2 H :    0.084191
   3 H :    0.093254
   4 H :    0.083242
   5 C :   -0.267492
   6 S :   -0.350938
   7 H :    0.086862
   8 H :    0.071274
   9 H :    0.097268
  10 C :   -0.285850
  11 S :   -0.491947
  12 H :    0.067539
  13 H :    0.077466
  14 H :    0.093074
Sum of atomic charges:   -1.0000000

LOEWDIN ATOMIC CHARGES
----------------------
   0 C :   -0.571533
   1 S :    0.164158
   2 H :    0.089585
   3 H :    0.086453
   4 H :    0.088018
   5 C :   -0.595347
   6 S :    0.001661
   7 H :    0.084605
   8 H :    0.086485
   9 H :    0.089476
  10 C :   -0.616750
  11 S :   -0.151464
  12 H :    0.082044
  13 H :    0.078421
  14 H :    0.084187

  Mayer bond orders larger than 0.1
B(  0-C ,  1-S ) :   1.0804 B(  0-C ,  2-H ) :   0.9641 B(  0-C ,  3-H ) :   0.9358
B(  0-C ,  4-H ) :   0.9644 B(  1-S ,  6-S ) :   0.6649 B(  1-S , 11-S ) :   0.4259
B(  5-C ,  6-S ) :   1.1176 B(  5-C ,  7-H ) :   0.9646 B(  5-C ,  8-H ) :   0.9510
B(  5-C ,  9-H ) :   0.9653 B(  6-S , 11-S ) :   0.2300 B( 10-C , 11-S ) :   1.1808
B( 10-C , 12-H ) :   0.9587 B( 10-C , 13-H ) :   0.9627 B( 10-C , 14-H ) :   0.9680

FINAL SINGLE POINT ENERGY     -1314.341729401065

DIPOLE MOMENT
-------------
                                X             Y             Z
Electronic contribution:      1.68607      -0.23252      -3.51030
Nuclear contribution   :     -2.63169      -0.49945       3.44107
                        -----------------------------------------
Total Dipole Moment    :     -0.94561      -0.73197      -0.06924
                        -----------------------------------------
Magnitude (a.u.)       :      1.19781
Magnitude (Debye)      :      3.04460

Rotational constants in cm-1:     0.136055     0.018224     0.017983
Rotational constants in MHz :  4078.837817   546.328407   539.116585

                             ****ORCA TERMINATED NORMALLY****
TOTAL RUN TIME: 0 days 0 hours 0 minutes 24 seconds 200 msec
