                         Program Version 4.1.0  - RELEASE  -
|  1> ! engrad B3LYP def2-TZVP
|  2> %pal nprocs 1 end
|  3> *xyz -1 1
|  4> C   -0.806718 0.0475439 1.5251484
|  5> S   0.3116624 0.2691858 0.0786324
|  6> H   -0.2255019 -0.222059 2.4060774
|  7> H   -1.4979938 -0.7535269 1.2757967
|  8> H   -1.3445395 0.9720244 1.7264612
|  9> C   -1.77909 0.0209031 -1.80541
| 10> S   -0.567743 -1.05889 -0.957928
| 11> H   -2.53036 0.40565 -1.11165
| 12> H   -2.29314 -0.54873 -2.58401
| 13> H   -1.27691 0.870358 -2.27188
| 14> C   2.53754 0.577351 1.82292
| 15> S   1.29456 1.6377 0.999977
| 16> H   3.29076 1.2096 2.29969
| 17> H   2.08508 -0.0535924 2.59179
| 18> H   3.03377 -0.0677286 1.09639
| 19> *
| 20>
| 21>                          ****END OF INPUT****

CARTESIAN COORDINATES (ANGSTROEM)
---------------------------------
  C     -0.806718    0.047544    1.525148
  S      0.311662    0.269186    0.078632
  H     -0.225502   -0.222059    2.406077
  H     -1.497994   -0.753527    1.275797
  H     -1.344539    0.972024    1.726461
  C     -1.779090    0.020903   -1.805410
  S     -0.567743   -1.058890   -0.957928
  H     -2.530360    0.405650   -1.111650
  H     -2.293140   -0.548730   -2.584010
  H     -1.276910    0.870358   -2.271880
  C      2.537540    0.577351    1.822920
  S      1.294560    1.637700    0.999977
  H      3.290760    1.209600    2.299690
  H      2.085080   -0.053592    2.591790
  H      3.033770   -0.067729    1.096390

 Total Charge           Charge          ....   -1
 Multiplicity           Mult            ....    1
 Number of Electrons    NEL             ....   76
 Basis Dimension        Dim             ....  258

ORBITAL ENERGIES
----------------

  NO   OCC          E(Eh)            E(eV)
   0   2.0000     -88.670691     -2412.8522
   1   2.0000     -88.628730     -2411.7104
   2   2.0000     -88.625575     -2411.6245
   3   2.0000     -10.025741      -272.8143
   4   2.0000     -10.025339      -272.8033
   5   2.0000     -10.012977      -272.4670
   6   2.0000      -7.744447      -210.7371
   7   2.0000      -7.711631      -209.8442
   8   2.0000      -7.708365      -209.7553
   9   2.0000      -5.708733      -155.3425
  10   2.0000      -5.703619      -155.2034
  11   2.0000      -5.698407      -155.0615
  12   2.0000      -5.674455      -154.4098
  13   2.0000      -5.671292      -154.3237
  14   2.0000      -5.669929      -154.2866
  15   2.0000      -5.666600      -154.1960
  16   2.0000      -5.666147      -154.1837
  17   2.0000      -5.662867      -154.0944
  18   2.0000      -0.673640       -18.3307
  19   2.0000      -0.601728       -16.3739
  20   2.0000      -0.560001       -15.2384
  21   2.0000      -0.503969       -13.7137
  22   2.0000      -0.483943       -13.1688
  23   2.0000      -0.371987       -10.1223
  24   2.0000      -0.288492        -7.8503
  25   2.0000      -0.272931        -7.4268
  26   2.0000      -0.267906        -7.2901
  27   2.0000      -0.264279        -7.1914
  28   2.0000      -0.258408        -7.0316
  29   2.0000      -0.241053        -6.5594
  30   2.0000      -0.223855        -6.0914
  31   2.0000      -0.209825        -5.7096
  32   2.0000      -0.170886        -4.6500
  33   2.0000      -0.162360        -4.4180
  34   2.0000      -0.052745        -1.4353
  35   2.0000      -0.047120        -1.2822
  36   2.0000      -0.040388        -1.0990
  37   2.0000       0.042043         1.1440
  38   0.0000       0.173501         4.7212
  39   0.0000       0.180070         4.9000
  40   0.0000       0.183656         4.9975
  41   0.0000       0.200773         5.4633
  42   0.0000       0.227136         6.1807

MULLIKEN ATOMIC CHARGES
-----------------------
   0 C :   -0.267554
   1 S :   -0.034977
   2 H :    0.068037
   3 H :    0.075717
   4 H :    0.062363
   5 C :   -0.325422
   6 S :   -0.316641
   7 H :    0.077330
   8 H :    0.060100
   9 H :    0.062711
  10 C :   -0.340825
  11 S :   -0.330064
  12 H :    0.064703
  13 H :    0.075887
  14 H :    0.068634
Sum of atomic charges:   -1.0000000

LOEWDIN ATOMIC CHARGES
----------------------
   0 C :   -0.551943
   1 S :   -0.029137
   2 H :    0.082100
   3 H :    0.074859
   4 H :    0.077935
   5 C :   -0.603366
   6 S :    0.047595
   7 H :    0.079705
   8 H :    0.078802
   9 H :    0.070475
  10 C :   -0.605345
  11 S :    0.048741
  12 H :    0.080425
  13 H :    0.078355
  14 H :    0.070798

  Mayer bond orders larger than 0.1
B(  0-C ,  1-S ) :   0.9572 B(  0-C ,  2-H ) :   0.9585 B(  0-C ,  3-H ) :   0.9355
B(  0-C ,  4-H ) :   0.9624 B(  1-S ,  6-S ) :   0.8654 B(  1-S , 11-S ) :   0.8100
B(  5-C ,  6-S ) :   1.0534 B(  5-C ,  7-H ) :   0.9656 B(  5-C ,  8-H ) :   0.9589
B(  5-C ,  9-H ) :   0.9517 B( 10-C , 11-S ) :   1.0643 B( 10-C , 12-H ) :   0.9616
B( 10-C , 13-H ) :   0.9606 B( 10-C , 14-H ) :   0.9528

FINAL SINGLE POINT ENERGY     -1314.067510303640

DIPOLE MOMENT
-------------
                                X             Y             Z
Electronic contribution:      2.29815       0.40778      -3.06233
Nuclear contribution   :     -2.63171      -0.49945       3.44109
                        -----------------------------------------
Total Dipole Moment    :     -0.33356      -0.09167       0.37876
                        -----------------------------------------
Magnitude (a.u.)       :      0.51296
Magnitude (Debye)      :      1.30383

Rotational constants in cm-1:     0.143265     0.034630     0.034240
Rotational constants in MHz :  4294.965708  1038.180632  1026.482060

                             ****ORCA TERMINATED NORMALLY****
TOTAL RUN TIME: 0 days 0 hours 4 minutes 32 seconds 748 msec
