                         Program Version 4.2.1 -  RELEASE  -
|  1> # Input file for Orca calculation
|  2> ! B3Lyp SVP
|  3>
|  4> %pal
|  5> nprocs 2
|  6> end
|  7>
|  8> *xyzfile 0 1 H2.xyz
|  9>
| 10>
| 11>                          ****END OF INPUT****

CARTESIAN COORDINATES (ANGSTROEM)
---------------------------------
  H      0.000000    0.000000    0.000000
  H      0.000000    0.000000    0.500000

 Total Charge           Charge          ....    0
 Multiplicity           Mult            ....    1
 Number of Electrons    NEL             ....    2
 Basis Dimension        Dim             ....   10

ORBITAL ENERGIES
----------------

  NO   OCC          E(Eh)            E(eV)
   0   2.0000      -0.485816       -13.2197
   1   0.0000       0.129117         3.5135
   2   0.0000       0.282192         7.6788
   3   0.0000       0.968468        26.3534
   4   0.0000       1.200177        32.6585
   5   0.0000       1.200177        32.6585

MULLIKEN ATOMIC CHARGES
-----------------------
   0 H :   -0.000000
   1 H :    0.000000
Sum of atomic charges:   -0.0000000

LOEWDIN ATOMIC CHARGES
----------------------
   0 H :   -0.000000
   1 H :    0.000000

  Mayer bond orders larger than 0.100000
B(  0-H ,  1-H ) :   1.0000

FINAL SINGLE POINT ENERGY        -1.083489927855

DIPOLE MOMENT
-------------
                                X             Y             Z
Electronic contribution:     -0.00000      -0.00000       0.00000
Nuclear contribution   :      0.00000       0.00000       0.00000
                        -----------------------------------------
Total Dipole Moment    :     -0.00000      -0.00000       0.00000
                        -----------------------------------------
Magnitude (a.u.)       :      0.00000
Magnitude (Debye)      :      0.00000

Rotational constants in cm-1:     0.000000   133.790832   133.790832
Rotational constants in MHz :     0.000000 4010948.251497 4010948.251497

                             ****ORCA TERMINATED NORMALLY****
TOTAL RUN TIME: 0 days 0 hours 0 minutes 3 seconds 189 msec
